% Model:              cali 3.02 0.91mm 校准-正常组织.mph
% Version:            COMSOL 5.6.0.280
% Date:               Aug 19 2023, 19:31
% Table:              表格 1 - 全局计算 1
% freq (Hz)              real(emw.S11) (1)        imag(emw.S11) (1)
300000000                -0.10677441047127267     -0.6265253281311426
330000000                -0.21354251289192538     -0.5995359805457369
360000000                -0.3141329651122883      -0.5545652970692582
390000000                -0.40554992919379435     -0.49294203918882123
420000000                -0.4850720234978009      -0.4164890798670253
450000000                -0.55033304778342        -0.32746828590826077
480000000                -0.5993918755524505      -0.22851231386552315
510000000                -0.6307893783586105      -0.12254540146086733
540000000                -0.6435906460503779      -0.012695625387972701
570000000                -0.637411272457526       0.09779862745327457
600000000                -0.6124269931100801      0.20568508826972917
630000000                -0.5693664577008425      0.3077939744177307
660000000                -0.509487450436548       0.4011313124013601
690000000                -0.43453745510060965     0.4829663299256762
720000000                -0.34670000973294796     0.5509103114252031
750000000                -0.2485286928484829      0.6029847194018981
780000000                -0.14287081843307556     0.637676780378394
810000000                -0.03278310556094279     0.6539810498691438
840000000                0.07855815900795769      0.6514257835314035
870000000                0.18794966720733122      0.6300833988126834
900000000                0.29225341812887073      0.5905649457057167
930000000                0.38848605381444073      0.5339991504833069
960000000                0.4739027723052832       0.4619970443517676
990000000                0.5460737054089426       0.3766034173937034
1020000000               0.6029508284494498       0.2802365137359062
1050000000               0.6429235995506076       0.17561766167836243
1080000000               0.6648617703090303       0.06569290166143671
1110000000               0.668144230750092        -0.04645100172886306
1140000000               0.6526732791759259       -0.15767361271205949
1170000000               0.6188742397418349       -0.2648684070504652
1200000000               0.5676807997672842       -0.3650485226119707
1230000000               0.5005067198916429       -0.45542856124794256
1260000000               0.419204703614329        -0.5335004762360095
1290000000               0.32601339378094657      -0.5971015594660856
1320000000               0.22349387060437156      -0.6444725183325763
1350000000               0.11445758405385914      -0.674303868019977
1380000000               0.001888065963929364     -0.6857694350501371
1410000000               -0.11114120390498475     -0.6785464347522123
1440000000               -0.22155066472891172     -0.652821995807532
1470000000               -0.32633833599881457     -0.6092860799754164
1500000000               -0.422661196007022       -0.5491107976472555
1530000000               -0.5079119379877798      -0.4739164710649997
1560000000               -0.5797887245790172      -0.38572541685987716
1590000000               -0.6363558767725362      -0.2869050253091224
1620000000               -0.6760939679878648      -0.18010206528774464
1650000000               -0.6979383030832068      -0.06817019859611659
1680000000               -0.7013050719529109      0.04590739931760534
1710000000               -0.6861045973131644      0.15909843034527205
1740000000               -0.6527412226439457      0.26840282737753846
1770000000               -0.6020997074893524      0.3709327538152948
1800000000               -0.5355185754308822      0.4639887917635753
1830000000               -0.4547515191212861      0.545130064154835
1860000000               -0.36191839148254545     0.6122365461613468
1890000000               -0.25944735884682696     0.663562326481026
1920000000               -0.15000967014108363     0.697778794445749
1950000000               -0.03644855235920854     0.7140067097405058
1980000000               0.0782959218060583       0.7118361864702325
2010000000               0.1912637782612695       0.6913340256943323
2040000000               0.2995515913425413       0.6530384545069464
2070000000               0.4003863810816721       0.5979418635513897
2100000000               0.49119526771636207      0.5274623841581603
2130000000               0.5696694306525864       0.4434051891467472
2.16E9                   0.6338209730122195       0.34791445755565703
2.19E9                   0.6820313013484839       0.2434171513748037
2.22E9                   0.7130897611970799       0.13256007434505954
2.25E9                   0.7262215839408903       0.018141974837669435
2.28E9                   0.7211046290875007       -0.09695741352162626
2.31E9                   0.6978748068105421       -0.20984956009433892
2.34E9                   0.657120322658712        -0.3177088835498191
2.37E9                   0.5998650032269875       -0.41784250133867995
2.4E9                    0.527541065777085        -0.5077564190071662
2.43E9                   0.441951920720339        -0.5852165333552248
2.46E9                   0.3452259482308808       -0.6483028628474691
2.49E9                   0.23976253509546358      -0.6954556438063102
2.52E9                   0.1281718546649996       -0.725512271762288
2.55E9                   0.013209908061267761     -0.7377343744724331
2.58E9                   -0.10228966889580349     -0.7318244958317863
2.61E9                   -0.21548547955741792     -0.7079320013292553
2.64E9                   -0.3235982497713308      -0.6666479978170452
2.67E9                   -0.4239789509805205      -0.6089893491475677
2.7E9                    -0.5141734038843149      -0.5363722226914373
2.73E9                   -0.5919817395529562      -0.45057593019551967
2.76E9                   -0.6555113033577081      -0.3536980670453298
2.79E9                   -0.7032217951246942      -0.24810211025541481
2.82E9                   -0.7339616132145136      -0.1363587575729089
2.85E9                   -0.7469945319607297      -0.021182429375029233
2.88E9                   -0.7420160454508368      0.09463548589580904
2.91E9                   -0.7191589876395498      0.2082949282010063
2.94E9                   -0.6789883684115571      0.3170552395718764
2.97E9                   -0.6224856867771311      0.41830130191946546
3.0E9                    -0.551023246470617       0.5096061449180862
3.03E9                   -0.46632920483174845     0.5887885632112767
3.06E9                   -0.3704442696383124      0.6539644069085991
3.09E9                   -0.2656711510199434      0.7035903455623078
3.12E9                   -0.15451806919087688     0.7364990885975767
3.15E9                   -0.03963777680159808     0.7519252851497503
3.18E9                   0.07623635414789742      0.7495215991903238
3.21E9                   0.19035560865447465      0.7293647239652106
3.24E9                   0.3000210193650654       0.6919513402467945
3.27E9                   0.40264676665905025      0.6381842383396942
3.3E9                    0.495820439862278        0.5693490304372404
3.33E9                   0.5773587909228282       0.48708208818391663
3.36E9                   0.6453577291894995       0.3933305434370059
3.39E9                   0.6982354637955152       0.2903053700507378
3.42E9                   0.7347678866488444       0.180428704961753
3.45E9                   0.7541154849642187       0.06627666533238927
3.48E9                   0.7558412648910977       -0.04948101439697916
3.51E9                   0.7399193576855567       -0.16414315465237309
3.54E9                   0.7067341746546241       -0.27503971081097117
3.57E9                   0.6570701814785207       -0.37959335345125345
3.6E9                    0.5920925712772498       -0.475378667764258
3.63E9                   0.5133193173629138       -0.5601776534900472
3.66E9                   0.42258527125713813      -0.6320302990139038
3.69E9                   0.3219991364942704       -0.6892791168244035
3.72E9                   0.2138942968804871       -0.7306066573733043
3.75E9                   0.1007746113045899       -0.7550651655517931
3.78E9                   -0.014743595901335027    -0.7620977112991505
3.81E9                   -0.12999202708962265     -0.7515503141066721
3.84E9                   -0.24231200070429493     -0.723674785467498
3.87E9                   -0.34911572384369327     -0.6791222264464379
3.9E9                    -0.4479458379697023      -0.6189273321037199
3.93E9                   -0.5365318637332173      -0.5444838658388413
3.96E9                   -0.6128422367737864      -0.45751187209481814
3.99E9                   -0.6751307233788648      -0.36001739197452354
4.02E9                   -0.7219761331525993      -0.25424562812924917
4.05E9                   -0.7523144042787431      -0.14262866595706938
4.08E9                   -0.7654623213454006      -0.027728990880563267
4.11E9                   -0.7611323295952657      0.08781985818269436
4.14E9                   -0.7394381263033146      0.2013740934225095
4.17E9                   -0.700890933852579       0.3103405050126101
4.2E9                    -0.6463865845871413      0.41223588028923513
4.23E9                   -0.5771837691349638      0.5047436272500961
4.26E9                   -0.4948740113840023      0.5857662918504735
4.29E9                   -0.4013441281654972      0.6534727694114513
4.32E9                   -0.2987321041286797      0.7063391506387005
4.35E9                   -0.18937745786273333     0.7431823071201847
4.38E9                   -0.07576729102379823     0.7631855042022352
4.41E9                   0.039520703476702584     0.7659155252061123
4.44E9                   0.1538769462151274       0.7513309948379062
4.47E9                   0.2647190415232585       0.7197817961161987
4.5E9                    0.3695498782464999       0.6719996789855994
4.53E9                   0.466013468714181        0.6090803550504018
4.56E9                   0.551947304181024        0.5324575571097461
4.59E9                   0.6254301001920212       0.443869710838638
4.62E9                   0.684823921907346        0.3453200162127237
4.65E9                   0.7288098137026058       0.23903086638962026
4.68E9                   0.7564162064574668       0.12739363987723942
4.71E9                   0.7670395362053999       0.012914987314976301
4.74E9                   0.7604566763801419       -0.10183920400535239
4.77E9                   0.7368289594537583       -0.21430094672343214
4.8E9                    0.696697739393311        -0.3219571558272073
4.83E9                   0.6409716212773656       -0.42240529088107853
4.86E9                   0.5709056559306277       -0.5134064445882661
4.89E9                   0.4880729631271898       -0.5929347389427201
4.92E9                   0.39432940407309175      -0.6592219670693756
4.95E9                   0.2917720699665369       -0.7107965164622089
4.98E9                   0.18269248578540742      -0.7465157267580325
5.01E9                   0.06952554421346573      -0.765590970920609
5.04E9                   -0.04520471873135765     -0.7676049007098483
5.07E9                   -0.15894131982120055     -0.7525204632615354
5.1E9                    -0.2691512590365012      -0.720681472703766
5.13E9                   -0.37338192198761516     -0.6728047055648668
5.16E9                   -0.46931569484593744     -0.6099636775338314
5.19E9                   -0.5548215638190294      -0.5335644476215162
5.22E9                   -0.6280025317826499      -0.44531397931075223
5.25E9                   -0.6872377736137167      -0.3471817622032469
5.28E9                   -0.7312185679055248      -0.24135555706214118
5.31E9                   -0.7589771835349559      -0.1301922675188479
5.34E9                   -0.7699080619273125      -0.016165058823971904
5.37E9                   -0.763780815757845       0.09819206575098502
5.4E9                    -0.7407447575661471      0.21034095977658718
5.43E9                   -0.7013248720824325      0.3177959999636165
5.46E9                   -0.6464093484233336      0.41817942792102863
5.49E9                   -0.5772289870824511      0.5092741077738208
5.52E9                   -0.49532898623074506     0.5890725077811134
5.55E9                   -0.40253378720469        0.6558208107795567
5.58E9                   -0.3009058155056537      0.7080571810462923
5.61E9                   -0.19269908736012234     0.7446433599592813
5.64E9                   -0.08030875989838933     0.7647889252883786
5.67E9                   0.033782216809849434     0.768067724279978
5.7E9                    0.14705813641623866      0.7544261739626766
5.73E9                   0.2570260300671214       0.7241833083728545
5.76E9                   0.3612703921931004       0.6780226370972869
5.79E9                   0.45750594676690604      0.6169760582844619
5.82E9                   0.5436273212585949       0.5424002383494485
5.85E9                   0.6177545769651837       0.45594602675352675
5.88E9                   0.6782736459339628       0.35952161472369853
5.91E9                   0.723870843188768        0.25525026963558767
5.94E9                   0.7535607556005122       0.1454235803585647
5.97E9                   0.766706952477027        0.03245123205114409
6.0E9                    0.7630351148671064       -0.08119160884245827
