% Model:              cali 2.99 1.02mm.mph
% Version:            COMSOL 5.6.0.280
% Date:               Aug 19 2023, 20:16
% Table:              表格 1 - 全局计算 1
% freq (Hz)              real(emw.S11) (1)        imag(emw.S11) (1)
300000000                0.4292661792809021       -0.7452653384431317
330000000                0.3509683616015529       -0.7822169294458299
360000000                0.26974163868429707      -0.8111126414381599
390000000                0.1863859107525917       -0.8317276528664949
420000000                0.10172292262081228      -0.8439184288332782
450000000                0.016585809194602775     -0.8476245702999612
480000000                -0.06819068055140197     -0.8428691889484494
510000000                -0.1517793323172704      -0.8297581123979392
540000000                -0.23336894592593416     -0.8084783678398315
570000000                -0.312172703663481       -0.7792961076359979
600000000                -0.3874363710978833      -0.7425533622825986
630000000                -0.45844563871255045     -0.6986638860566984
660000000                -0.52453294209296        -0.6481086880473058
690000000                -0.5850841188007674      -0.591430753202964
720000000                -0.6395440867267512      -0.5292287005552482
750000000                -0.6874212075945049      -0.4621505012482742
780000000                -0.7282916661617277      -0.3908876915821446
810000000                -0.7618044058573703      -0.3161686003022648
840000000                -0.7876851747268394      -0.23874973631379215
870000000                -0.8057383393760885      -0.15940628428082643
900000000                -0.8158464560608526      -0.07892330432920547
930000000                -0.8179688917329667      0.0019113968988577795
960000000                -0.8121409075602163      0.08231329115560561
990000000                -0.7984734209323916      0.16150725847374553
1020000000               -0.7771529288484671      0.23873463481172627
1050000000               -0.7484405426494599      0.31326162715138645
1080000000               -0.7126687464560801      0.3843883860701962
1110000000               -0.6702356659403949      0.4514569016072482
1140000000               -0.6215983280086524      0.5138564694051634
1170000000               -0.5672666857340471      0.5710272806665032
1200000000               -0.5077987538873584      0.6224636911783473
1230000000               -0.44379596812525324     0.667717962194669
1260000000               -0.3758979948357965      0.7064043149131461
1290000000               -0.30477657190316904     0.7382028635286151
1320000000               -0.23112829410611938     0.7628627122761295
1350000000               -0.1556669744026934      0.7802036439115336
1380000000               -0.07911633437261933     0.7901167012893869
1410000000               -0.0022029495804606115   0.7925642701040001
1440000000               0.07435100491585         0.787579533960279
1470000000               0.14983496407702274      0.7752647353174456
1500000000               0.22355630907288548      0.7557883472874753
1530000000               0.2948455311587383       0.7293820757298592
1560000000               0.36306092774278         0.6963384042461249
1590000000               0.4275937631472273       0.6570083988985269
1620000000               0.4878741065392168       0.6117988865704996
1650000000               0.5433768254855548       0.5611683658634077
1680000000               0.5936269786408795       0.5056215358850293
1710000000               0.638203899573123        0.4457028128246607
1740000000               0.6767436265655586       0.3819896763616893
1770000000               0.7089400972073261       0.3150867592690132
1800000000               0.7345461072038426       0.24562091552342324
1830000000               0.7533747556875255       0.17423660559832232
1860000000               0.7653012228265759       0.10159071918831447
1890000000               0.7702641568670885       0.028346517105591874
1920000000               0.7682660769494305       -0.044832991985268626
1950000000               0.7593726269423944       -0.11729171765779395
1980000000               0.7437108200136895       -0.1883867774707755
2010000000               0.7214665601539814       -0.25749416062108627
2040000000               0.6928817856520553       -0.3240137129265884
2070000000               0.6582515082425658       -0.3873736016053532
2100000000               0.61792081643652         -0.44703452013569667
2130000000               0.5722817167542854       -0.5024938133648273
2.16E9                   0.5217696271761726       -0.5532895412721429
2.19E9                   0.46685937997425225      -0.599004378464973
2.22E9                   0.4080606647971996       -0.6392691710015205
2.25E9                   0.34591295507408937      -0.6737659273317342
2.28E9                   0.2809801075154063       -0.7022300613444474
2.31E9                   0.21384491060708832      -0.7244518592295153
2.34E9                   0.1451038002293421       -0.7402773172523592
2.37E9                   0.07536179671774157      -0.7496085703522142
2.4E9                    0.005227565534219103     -0.7524040662237668
2.43E9                   -0.06469154898026393     -0.7486784991167476
2.46E9                   -0.13379461007301183     -0.738502393084259
2.49E9                   -0.20149226850132457     -0.7220011794101716
2.52E9                   -0.26721189789697947     -0.6993536625892478
2.55E9                   -0.3304025053079036      -0.6707898762952194
2.58E9                   -0.39053927692942625     -0.6365884287798437
2.61E9                   -0.44712770441881444     -0.5970734759945079
2.64E9                   -0.49970731317702777     -0.5526114367983612
2.67E9                   -0.5478550486408178      -0.5036075081583123
2.7E9                    -0.5911883681142314      -0.45050198402921693
2.73E9                   -0.6293680500849178      -0.39376635109368224
2.76E9                   -0.6621006909384302      -0.3338991346096623
2.79E9                   -0.6891408287047501      -0.27142149352212797
2.82E9                   -0.7102926264785829      -0.20687260228706342
2.85E9                   -0.7254110657514105      -0.14080489159833792
2.88E9                   -0.7344026345632066      -0.07377923764202284
2.91E9                   -0.7372255331243441      -0.006360183298253681
2.94E9                   -0.733889444793589       0.060888752172940847
2.97E9                   -0.7244549223525434      0.12740965284915898
3.0E9                    -0.7090324195033141      0.19265467732899044
3.03E9                   -0.687780969081901       0.2560904253487729
3.06E9                   -0.660906490579572       0.317202184867549
3.09E9                   -0.6286597112364318      0.37549801841103164
3.12E9                   -0.5913337050307664      0.4305126301273299
3.15E9                   -0.5492610801440737      0.4818109557715656
3.18E9                   -0.5028108642661774      0.5289914342579544
3.21E9                   -0.4523851411570534      0.5716889415285081
3.24E9                   -0.39841548303270957     0.6095773841339795
3.27E9                   -0.3413592095395392      0.6423719554974934
3.3E9                    -0.2816954939348795      0.6698310533998528
3.33E9                   -0.21992133494442412     0.6917578490189036
3.36E9                   -0.1565474180117537      0.7080014919252448
3.39E9                   -0.09209389799772066     0.718457935410953
3.42E9                   -0.02708614250552497     0.7230703720864637
3.45E9                   0.03794952201517923      0.721829278353214
3.48E9                   0.10249002056763229      0.7147720749946904
3.51E9                   0.16601966012403652      0.7019824174809606
3.54E9                   0.22803414980493975      0.6835891326743939
3.57E9                   0.2880444849319112       0.6597648188944922
3.6E9                    0.3455806717806832       0.630724125100549
3.63E9                   0.400195270283618        0.5967217239644489
3.66E9                   0.45146673091279405      0.5580499941555503
3.69E9                   0.4990025010935011       0.5150364296404424
3.72E9                   0.5424418769290433       0.46804079768711637
3.75E9                   0.5814585784277899       0.4174520712371999
3.78E9                   0.6157630303583631       0.36368516424454006
3.81E9                   0.6451043353755956       0.30717749975952385
3.84E9                   0.6692719300101481       0.2483854402165775
3.87E9                   0.6880969168988721       0.1877806082982234
3.9E9                    0.7014530683209664       0.12584612585215407
3.93E9                   0.7092574972503809       0.06307279813126047
3.96E9                   0.7114709934870952       -4.4728805210420194E-5
3.99E9                   0.7080980244371144       -0.06301180889087309
4.02E9                   0.6991864028198954       -0.12533760584713335
4.05E9                   0.6848266266621579       -0.18653884290649994
4.08E9                   0.6651508999494773       -0.24614346428768968
4.11E9                   0.6403318449171949       -0.3036941816551579
4.14E9                   0.610580919028277        -0.35875188047893963
4.17E9                   0.5761465513471314       -0.41089886280937515
4.2E9                    0.5373120144786148       -0.45974190440421625
4.23E9                   0.49439304968413844      -0.5049151055039264
4.26E9                   0.4477352642875214       -0.5460825159026406
4.29E9                   0.3977113221009864       -0.5829405164571715
4.32E9                   0.34471794910680664      -0.6152199409807033
4.35E9                   0.2891727779993271       -0.6426879244921024
4.38E9                   0.23151105631552993      -0.6651494659780219
4.41E9                   0.17218224368479387      -0.6824486961506284
4.44E9                   0.11164652428283368      -0.6944698429759787
4.47E9                   0.05037126090052749      -0.7011378900083098
4.5E9                    -0.011172582788224618    -0.7024189247867221
4.53E9                   -0.07251402513579404     -0.6983201767257414
4.56E9                   -0.13318562807915485     -0.688889746133675
4.59E9                   -0.19272701105719448     -0.674216028196605
4.62E9                   -0.2506882914342654      -0.6544268379918975
4.65E9                   -0.30663342618695977     -0.6296882448083063
4.68E9                   -0.3601434305052208      -0.6002031261998878
4.71E9                   -0.4108194499981416      -0.5662094542560757
4.74E9                   -0.4582856644293307      -0.5279783285215888
4.77E9                   -0.5021920023470161      -0.48581177177517765
4.8E9                    -0.5422166474671339      -0.4400403065508117
4.83E9                   -0.5780683193484072      -0.39102033180320267
4.86E9                   -0.6094883126610906      -0.3391313204824718
4.89E9                   -0.6362522812269973      -0.2847728600280716
4.92E9                   -0.6581717549977099      -0.22836155885051235
4.95E9                   -0.6750953802109877      -0.17032784275863044
4.98E9                   -0.6869098751251708      -0.11111266598294121
5.01E9                   -0.6935406959156434      -0.0511641619749677
5.04E9                   -0.6949524095803192      0.00906574061512887
5.07E9                   -0.69114877291088        0.069124711206986
5.1E9                    -0.6821725188293754      0.12856339441028672
5.13E9                   -0.6681048535841102      0.18693874586107462
5.16E9                   -0.6490646704453424      0.24381730215332276
5.19E9                   -0.6252074876448543      0.2987783609217338
5.22E9                   -0.5967241203058399      0.35141704797968404
5.25E9                   -0.5638390980612703      0.40134724943954936
5.28E9                   -0.5268088418496213      0.44820438796064715
5.31E9                   -0.48591961510521103     0.49164802357523874
5.34E9                   -0.4414852660942796      0.5313642610594338
5.37E9                   -0.3938447795881884      0.56706794738787
5.4E9                    -0.34335965731401663     0.5985046445432032
5.43E9                   -0.29041114771391596     0.6254523647473974
5.46E9                   -0.23539734649124533     0.6477230570562874
5.49E9                   -0.1787301901539225      0.6651638362010348
5.52E9                   -0.12083236537717018     0.6776579465410567
5.55E9                   -0.06213415737456174     0.6851254560065736
5.58E9                   -0.003070260720076412    0.687523676926341
5.61E9                   0.0559234238913378       0.6848473126598608
5.64E9                   0.11441298359273554      0.6771283309536995
5.67E9                   0.17196965492209168      0.6644355669055273
5.7E9                    0.22817293041741085      0.6468740603421039
5.73E9                   0.2826135882168616       0.6245841342762404
5.76E9                   0.3348966234158699       0.5977402228896437
5.79E9                   0.38464406082485464      0.566549459198192
5.82E9                   0.4314976298073919       0.5312500341558569
5.85E9                   0.4751212830078121       0.49210934047590965
5.88E9                   0.5152035420708646       0.4494219158163575
5.91E9                   0.5514596547725663       0.4035072012870101
5.94E9                   0.5836335494643095       0.35470713236742113
5.97E9                   0.6114995742457862       0.3033835803470735
6.0E9                    0.6348640098698035       0.24991566331503137
