% Model:              cali 1.68 0.57mm.mph
% Version:            COMSOL 5.6.0.280
% Date:               Aug 19 2023, 20:08
% Table:              表格 1 - 全局计算 1
% freq (Hz)              real(emw.S11) (1)        imag(emw.S11) (1)
300000000                0.6189875247078285       -0.7658157050633085
330000000                0.5482014198933838       -0.8174095806245015
360000000                0.4731416370436783       -0.8624214729044346
390000000                0.3944240748308445       -0.9004967620235445
420000000                0.31269514180033603      -0.9313386458825758
450000000                0.22862451914877938      -0.9547132182144742
480000000                0.14289872249952093      -0.9704461465307292
510000000                0.056218947510195606     -0.9784276563644401
540000000                -0.030707630399889753    -0.9786134476481044
570000000                -0.1171735978943163      -0.9710243766978991
600000000                -0.20247725256826846     -0.9557462214250658
630000000                -0.28592852248951905     -0.9329289982680337
660000000                -0.36685547423308285     -0.9027860729060904
690000000                -0.4446107245533685      -0.8655904223529842
720000000                -0.5185744781139088      -0.8216729212048769
750000000                -0.5881618440994253      -0.7714207431300466
780000000                -0.6528284786061513      -0.7152723712104543
810000000                -0.7120744894052076      -0.6537126404260141
840000000                -0.7654475170709164      -0.5872687544621928
870000000                -0.8125468852696207      -0.5165064401572055
900000000                -0.8530278077177176      -0.4420244679096832
930000000                -0.8866040120638973      -0.36444796613553
960000000                -0.9130483966399567      -0.2844226662252121
990000000                -0.9321945917502049      -0.20261044786260185
1020000000               -0.9439389437129592      -0.11968331054542075
1050000000               -0.9482409386904354      -0.03631674969948269
1080000000               -0.9451227228574711      0.046816488983474215
1110000000               -0.9346679805435172      0.12905247811537546
1140000000               -0.9170200607955578      0.2097418318968262
1170000000               -0.8923796716034625      0.2882548252464384
1200000000               -0.8610024920960488      0.36398619889679673
1230000000               -0.8231964498710491      0.4363599483804236
1260000000               -0.7793184600740586      0.5048338652071863
1290000000               -0.729770771805036       0.568903720018357
1320000000               -0.674996896340497       0.6281071220974024
1350000000               -0.6154770812742744      0.6820268981805647
1380000000               -0.5517234792683962      0.7302938474591434
1410000000               -0.48427519620126686     0.7725888699542947
1440000000               -0.41369334191972823     0.8086445534749904
1470000000               -0.340556111480423       0.8382463216682793
1500000000               -0.2654538636901487      0.8612331813889462
1530000000               -0.18898419119412113     0.8774980406640047
1560000000               -0.11174703003376632     0.8869875714290743
1590000000               -0.034339867212274555    0.8897016261059195
1620000000               0.0426469101697748       0.8856922311905002
1650000000               0.11863448682374855      0.8750621798605915
1680000000               0.19305987391022655      0.8579632505457859
1710000000               0.2653799143945054       0.8345940874797304
1740000000               0.3350750187458402       0.8051977810244559
1770000000               0.40165261740516095      0.7700591804139068
1800000000               0.464650316587991        0.7295019680018281
1830000000               0.5236387436218045       0.683885525845255
1860000000               0.5782240718958861       0.6336016288046202
1890000000               0.6280502221614435       0.5790709986529091
1920000000               0.672800742637945        0.5207397498395964
1950000000               0.7122003721537148       0.4590757524700362
1980000000               0.7460162895524164       0.3945649346940414
2010000000               0.7740590511246013       0.32770754602183705
2040000000               0.7961832176708854       0.2590144042669549
2070000000               0.8122876745608139       0.18900314983353375
2100000000               0.8223156507443286       0.11819453109035732
2130000000               0.826254445267183        0.047108743481894505
2.16E9                   0.8241348718184999       -0.023738156943676238
2.19E9                   0.816030432942521        -0.09383774707698307
2.22E9                   0.8020562359144062       -0.1626926207656873
2.25E9                   0.7823676621561507       -0.22981964830967652
2.28E9                   0.7571588018820471       -0.29475309713192427
2.31E9                   0.7266606656078267       -0.3570475999751486
2.34E9                   0.6911391845458681       -0.41628095700808354
2.37E9                   0.6508930125215578       -0.47205675865629665
2.4E9                    0.6062511429368727       -0.5240068162919221
2.43E9                   0.5575703551614826       -0.571793388641674
2.46E9                   0.5052325056103694       -0.6151111925207794
2.49E9                   0.4496416796184548       -0.6536891873288903
2.52E9                   0.39122122092985934      -0.6872921237497055
2.55E9                   0.33041065641805756      -0.7157218480148391
2.58E9                   0.26766253435144255      -0.7388183541586062
2.61E9                   0.20343919528371296      -0.7564605777874372
2.64E9                   0.13820949530041277      -0.7685669261291718
2.67E9                   0.07244550214377554      -0.7750955404097534
2.7E9                    0.006619185172725573     -0.776044288145272
2.73E9                   -0.05880087909186891     -0.7714504844322667
2.76E9                   -0.1233527639461876      -0.7613903431516552
2.79E9                   -0.18658438965583457     -0.7459781607697407
2.82E9                   -0.24805663843682613     -0.7253652374176986
2.85E9                   -0.30734636502756346     -0.6997385419321127
2.88E9                   -0.3640492809652903      -0.6693191296190534
2.91E9                   -0.41778269119880573     -0.6343603236061478
2.94E9                   -0.468188062605642       -0.5951456726816574
2.97E9                   -0.5149334048731772      -0.551986700601294
3.0E9                    -0.5577154456799449      -0.5052204637085138
3.03E9                   -0.5962615834913054      -0.4552069356077071
3.06E9                   -0.6303316031375735      -0.4023262392402134
3.09E9                   -0.6597191412469211      -0.34697574823438276
3.12E9                   -0.6842528907356428      -0.28956708070628595
3.15E9                   -0.7037975358906841      -0.23052300965585915
3.18E9                   -0.7182544119242761      -0.1702743150274585
3.21E9                   -0.7275618854688957      -0.10925660287226538
3.24E9                   -0.7316954549630035      -0.04790711740443011
3.27E9                   -0.7306675725095824      0.013338428364689943
3.3E9                    -0.724527191318658       0.07404897808594954
3.33E9                   -0.7133590453490761      0.13380118892464943
3.36E9                   -0.6972826701610878      0.19218239600094542
3.39E9                   -0.676451176254553       0.2487934618376988
3.42E9                   -0.6510497882755506      0.3032514895878203
3.45E9                   -0.6212941653639369      0.3551923804956968
3.48E9                   -0.587428519639014       0.40427321781159586
3.51E9                   -0.5497235512405282      0.45017446138434586
3.54E9                   -0.508474219586166       0.4926019391919263
3.57E9                   -0.4639973714331831      0.5312886242907551
3.6E9                    -0.41662924702925075     0.5659961878375116
3.63E9                   -0.3667228861089827      0.5965163210589975
3.66E9                   -0.31464545558820894     0.622671821334865
3.69E9                   -0.26077552086351635     0.6443174396037348
3.72E9                   -0.20550028223472083     0.6613404885078511
3.75E9                   -0.14921279756305186     0.6736612125920538
3.78E9                   -0.09230921153009214     0.6812329237933719
3.81E9                   -0.03518601108696071     0.6840419071561196
3.84E9                   0.02176267435415813      0.6821071032957204
3.87E9                   0.07814771049498966      0.6754795755452652
3.9E9                    0.13358751717086897      0.6642417709696421
3.93E9                   0.1877105337903956       0.6485065855126863
3.96E9                   0.2401575774161705       0.6284162444578053
3.99E9                   0.29058408104123806      0.6041410101422651
4.02E9                   0.33866220089836363      0.5758777294716223
4.05E9                   0.3840827829930678       0.5438482342251271
4.08E9                   0.4265571802400608       0.5082976075038558
4.11E9                   0.46581891286838834      0.4694923298514236
4.14E9                   0.5016251658701437       0.4277183187298459
4.17E9                   0.5337581184371635       0.38327887500850527
4.2E9                    0.5620261013145992       0.33649255010991025
4.23E9                   0.5862645790125541       0.2876909473339459
4.26E9                   0.606336954733407        0.2372164706997707
4.29E9                   0.6221351966903236       0.1854200344936158
4.32E9                   0.6335802853257729       0.1326587464544199
4.35E9                   0.6406224816511177       0.07929357732373488
4.38E9                   0.6432414176326123       0.025687029220032923
4.41E9                   0.6414460102101288       -0.02779918489321033
4.44E9                   0.6352742011621726       -0.08080643868309192
4.47E9                   0.6247925256371822       -0.13298145508382184
4.5E9                    0.6100955127710161       -0.18397852252853913
4.53E9                   0.591304922403587        -0.2334616535211597
4.56E9                   0.5685688225083549       -0.28110667439318443
4.59E9                   0.5420605125442208       -0.32660323543804365
4.62E9                   0.5119772985839351       -0.3696567307780176
4.65E9                   0.47853912668029785      -0.40999011762905546
4.68E9                   0.44198708163573475      -0.4473456248818337
4.71E9                   0.40258175899021753      -0.48148634127656353
4.74E9                   0.36060151875464613      -0.5121976737954511
4.77E9                   0.3163406301539864       -0.5392886673367729
4.8E9                    0.27010731735051635      -0.5625931772132504
4.83E9                   0.22222171687014003      -0.5819708865920172
4.86E9                   0.17301375818251402      -0.5973081616170379
4.89E9                   0.12282097958419627      -0.6085187376986467
4.92E9                   0.0719862922529023       -0.6155442312476627
4.95E9                   0.02085570597406257      -0.6183544720489236
4.98E9                   -0.030223969396164386    -0.6169476524686094
5.01E9                   -0.0809074320674677      -0.6113502907635553
5.04E9                   -0.13085319103624293     -0.6016170069445872
5.07E9                   -0.17972584795148167     -0.5878301108903238
5.1E9                    -0.22719834251598714     -0.5700990037329616
5.13E9                   -0.27295414565365544     -0.5485593949178389
5.16E9                   -0.3166893847548311      -0.5233723387562333
5.19E9                   -0.3581148854466282      -0.4947230957534925
5.22E9                   -0.3969581146750229      -0.4628198254532608
5.25E9                   -0.4329650103805108      -0.4278921190036591
5.28E9                   -0.46590168370622753     -0.3901893810555536
5.31E9                   -0.49555598045229304     -0.3499790720272171
5.34E9                   -0.5217388894902529      -0.30754482303752456
5.37E9                   -0.5442857869662774      -0.26318443704376365
5.4E9                    -0.5630575063526599      -0.21720779084736522
5.43E9                   -0.577941225820794       -0.16993465358409995
5.46E9                   -0.5888511659012793      -0.12169243815999523
5.49E9                   -0.595729091971443       -0.07281390277188017
5.52E9                   -0.598544617803535       -0.023634820148563194
5.55E9                   -0.5972953081028262      0.02550836753910625
5.58E9                   -0.5920065797357732      0.07428089001337922
5.61E9                   -0.5827314030836511      0.12235196846267077
5.64E9                   -0.5695498067086298      0.16939709555825877
5.67E9                   -0.5525681902090399      0.21510025861144577
5.7E9                    -0.5319184517746212      0.259156089149867
5.73E9                   -0.5077569384969208      0.301271922992419
5.76E9                   -0.48026322893327367     0.34116975583495973
5.79E9                   -0.4496387587449686      0.3785880804625123
5.82E9                   -0.41610530140432245     0.41328359288825167
5.85E9                   -0.3799033170095033      0.44503275603841647
5.88E9                   -0.34129018311035425     0.47363321100229216
5.91E9                   -0.30053832217629933     0.4989050273033699
5.94E9                   -0.2579332408624983      0.5206917851534926
5.97E9                   -0.21377149662603215     0.538861484171883
6.0E9                    -0.16835860745513997     0.5533072745426489
