% Model:              cali 3.02 0.91mm 校准-正常组织.mph
% Version:            COMSOL 5.6.0.280
% Date:               Aug 19 2023, 15:24
% Table:              表格 1 - 全局计算 1
% freq (Hz)              real(emw.S11) (1)        imag(emw.S11) (1)
300000000                0.03681649242578953      -0.9833010265171769
330000000                -0.1127709070510628      -0.9747792284903046
360000000                -0.258683182588889       -0.9435463824389191
390000000                -0.39748517757702384     -0.8905754311644956
420000000                -0.5259648081907796      -0.8173546722417084
450000000                -0.6412091489285063      -0.7258398473155232
480000000                -0.7406707685385441      -0.6183949002808062
510000000                -0.8222214936547165      -0.49772356976056814
540000000                -0.8841932801067464      -0.3667960812532831
570000000                -0.9254076094460232      -0.22877193488248526
600000000                -0.9451919679417273      -0.08691978797382668
630000000                -0.9433830789992785      0.055462617840345375
660000000                -0.9203177912144034      0.1951262777983538
690000000                -0.876812553297293       0.32894482230928074
720000000                -0.8141324973752564      0.4539829778873921
750000000                -0.7339513332290302      0.5675582513861464
780000000                -0.6383034356415025      0.6672947336756894
810000000                -0.529529615406522       0.7511682265593552
840000000                -0.4102180431131265      0.8175421823139137
870000000                -0.2831417448888085      0.8651941150325181
900000000                -0.1511941186026844      0.8933322991655812
930000000                -0.017323927348152246    0.9016028094710524
960000000                0.11552886416368438      0.8900871911180869
990000000                0.2444951770108686       0.8592912108978711
1020000000               0.36683571352291794      0.8101252559615661
1050000000               0.47999564931528416      0.7438770520648436
1080000000               0.5816542210566077       0.6621774760828331
1110000000               0.669768433765092        0.5669603277236763
1140000000               0.7426102448329236       0.46041699471991804
1170000000               0.798796716489322        0.3449469942695813
1200000000               0.8373127597259349       0.22310540666297782
1230000000               0.8575262228301554       0.09754823736996268
1260000000               0.859195207320973        -0.029023247381015433
1290000000               0.8424676237860457       -0.15391817213604445
1320000000               0.807873127202333        -0.27451067129051293
1350000000               0.7563076939857162       -0.3882924898063831
1380000000               0.6890112199255406       -0.4929226261151515
1410000000               0.6075386290331455       -0.5862731352128433
1440000000               0.5137250879899933       -0.6664702789380822
1470000000               0.40964601855279653      -0.7319302908092267
1500000000               0.29757269003562764      -0.7813891147366075
1530000000               0.17992425387299385      -0.813925580841702
1560000000               0.05921715024219463      -0.8289775967897536
1590000000               -0.061987129566555235    -0.8263510585126698
1620000000               -0.1811349030049584      -0.8062213182375086
1650000000               -0.295732737242599       -0.7691271886307967
1680000000               -0.4033984291330353      -0.7159576066992687
1710000000               -0.5019095030534407      -0.6479312271793516
1740000000               -0.5892482466768166      -0.5665693594796645
1770000000               -0.6636423683560282      -0.4736628009325145
1800000000               -0.7236004437862407      -0.37123324903557364
1830000000               -0.7679414235098723      -0.26149009282290697
1860000000               -0.7958175947340268      -0.14678348497627555
1890000000               -0.8067305279663226      -0.029554678978968924
1920000000               -0.8005396883126782      0.08771532332829172
1950000000               -0.7774635490610091      0.20255773071911098
1980000000               -0.7380732075531944      0.31256743229530803
2010000000               -0.6832786659731798      0.4154528946571343
2040000000               -0.61430809836473        0.509083440843105
2070000000               -0.5326805759079564      0.5915329269011754
2100000000               -0.44017286115042825     0.6611189158945333
2130000000               -0.3387810054241105      0.7164365526459324
2.16E9                   -0.23067758905476765     0.7563864629547625
2.19E9                   -0.11816552894508447     0.7801961348919388
2.22E9                   -0.0036294414238984274   0.7874343833654692
2.25E9                   0.11051441135685139      0.7780186489641195
2.28E9                   0.22186854534579653      0.7522150341974578
2.31E9                   0.3281040074849978       0.7106311314058085
2.34E9                   0.42700844243981156      0.6542018433279597
2.37E9                   0.516531503871402        0.5841685369336033
2.4E9                    0.5948267056328439       0.5020520008730748
2.43E9                   0.6602888885436337       0.40961979505496093
2.46E9                   0.7115865732982972       0.3088486852987592
2.49E9                   0.7476885764949455       0.2018829458990895
2.52E9                   0.7678843831571449       0.0909893869559803
2.55E9                   0.7717978930146039       -0.021489979096473003
2.58E9                   0.7593942871850257       -0.1331866764492878
2.61E9                   0.7309798949177019       -0.2417549315388702
2.64E9                   0.6871950745349662       -0.34492028018742193
2.67E9                   0.6290002569984587       -0.4405266419480439
2.7E9                    0.5576554324702467       -0.5265809157565244
2.73E9                   0.4746934881871754       -0.6012941959711315
2.76E9                   0.38188792757484596      -0.6631187699840969
2.79E9                   0.28121561421476715      -0.7107801364223344
2.82E9                   0.17481528726739448      -0.7433033765896324
2.85E9                   0.06494268598577353      -0.7600333193796828
2.88E9                   -0.04607680317672305     -0.7606480608161761
2.91E9                   -0.15589700381221974     -0.7451655312432651
2.94E9                   -0.2622002973291573      -0.7139429442544434
2.97E9                   -0.36274642701054394     -0.6676691089631099
3.0E9                    -0.4554197253819348      -0.607349738226373
3.03E9                   -0.5382737555532316      -0.5342860367329851
3.06E9                   -0.6095724039990531      -0.45004700075479964
3.09E9                   -0.6678265314133128      -0.3564360022606821
3.12E9                   -0.7118253791592227      -0.25545236021115203
3.15E9                   -0.7406620397493047      -0.1492487174809268
3.18E9                   -0.7537524281819311      -0.040085139869104086
3.21E9                   -0.7508473341085943      0.06971906920934277
3.24E9                   -0.7320372889453552      0.1778347904492879
3.27E9                   -0.6977501433794112      0.28197266964957207
3.3E9                    -0.6487414148590277      0.37993177709343073
3.33E9                   -0.5860776273568802      0.46964628666363445
3.36E9                   -0.5111130225284767      0.5492291635032095
3.39E9                   -0.4254601683106525      0.6170119202443791
3.42E9                   -0.3309551243166837      0.6715795946209449
3.45E9                   -0.22961793971980599     0.7118002129980617
3.48E9                   -0.12360935632358512     0.7368481315521221
3.51E9                   -0.015184664924177938    0.7462207861688617
3.54E9                   0.09335428404994489      0.7397485296210901
3.57E9                   0.19970788501986814      0.717597386568125
3.6E9                    0.3016273596465787       0.6802647096697302
3.63E9                   0.3969620958008923       0.6285678701010466
3.66E9                   0.48370475855591644      0.5636262599183078
3.69E9                   0.5600332451882059       0.48683701918267375
3.72E9                   0.6243486300981055       0.39984502521972326
3.75E9                   0.6753083351131605       0.3045077927564035
3.78E9                   0.7118538631905121       0.20285603072966102
3.81E9                   0.7332325473382817       0.09705068254126069
3.84E9                   0.7390128887880856       -0.010662658690236715
3.87E9                   0.729093187380893        -0.11800102112644284
3.9E9                    0.7037033002764623       -0.22269204265871148
3.93E9                   0.6633995006030112       -0.32252169611845877
3.96E9                   0.6090525433833065       -0.4153807760784516
3.99E9                   0.5418291800405592       -0.4993091955836107
4.02E9                   0.46316749292074316      -0.5725371820313215
4.05E9                   0.37474654562515664      -0.6335225193572651
4.08E9                   0.2784509612820914       -0.6809830583172318
4.11E9                   0.17633114714374756      -0.7139238069622099
4.14E9                   0.07055997793050572      -0.7316580184544638
4.17E9                   -0.03661317015497474     -0.7338218117890082
4.2E9                    -0.14291007970861216     -0.7203819909416148
4.23E9                   -0.24607204712191494     -0.6916368674209898
4.26E9                   -0.34390790834138163     -0.6482100375356
4.29E9                   -0.43434070845747685     -0.5910372160346442
4.32E9                   -0.5154520078798042      -0.521346378855386
4.35E9                   -0.5855228602648329      -0.4406316160024619
4.38E9                   -0.6430705624592634      -0.35062123741770357
4.41E9                   -0.6868803636614631      -0.2532408062889578
4.44E9                   -0.7160314280605262      -0.1505718920872965
4.47E9                   -0.7299164703450041      -0.04480743612019827
4.5E9                    -0.7282546235757896      0.061795297143921596
4.53E9                   -0.7110972507548958      0.1669631521474871
4.56E9                   -0.6788265708959971      0.2684558335253788
4.59E9                   -0.6321471334893233      0.3641139048376108
4.62E9                   -0.572070337457466       0.45190498106693844
4.65E9                   -0.4998923478181143      0.5299671046241358
4.68E9                   -0.41716591106334555     0.5966483620108016
4.71E9                   -0.3256667050227067      0.6505418875672042
4.74E9                   -0.22735497734560228     0.6905155092862224
4.77E9                   -0.12433332605153567     0.7157354162896207
4.8E9                    -0.018801553715005782    0.7256833647345021
4.83E9                   0.08699041741894842      0.7201670848671209
4.86E9                   0.1907905496426361       0.6993237029044285
4.89E9                   0.29039258403663076      0.6636161436418874
4.92E9                   0.3836828086462607       0.613822629674242
4.95E9                   0.46868471882788665      0.5510195375954224
4.98E9                   0.5436006421730929       0.4765580077192157
5.01E9                   0.6068494725037831       0.39203482921139166
5.04E9                   0.6570997452365234       0.29925823504465815
5.07E9                   0.6932973877345465       0.20020933928598628
5.1E9                    0.7146875908369297       0.09700003157008066
5.13E9                   0.7208303692524329       -0.008171790650806322
5.16E9                   0.7116095066409263       -0.11306872295382027
5.19E9                   0.6872347139144769       -0.215461127913474
5.22E9                   0.6482369642841825       -0.31317420923213
5.25E9                   0.5954571039291          -0.40413391780160607
5.28E9                   0.5300279707250702       -0.4864107441413844
5.31E9                   0.4533503832318383       -0.5582604917360351
5.34E9                   0.36706348604741984      -0.6181611829660273
5.37E9                   0.2730100535642622       -0.6648453230645308
5.4E9                    0.17319746000271297      -0.6973268369325876
5.43E9                   0.06975511719304421      -0.7149220976632572
5.46E9                   -0.03511073918933647     -0.7172645828686957
5.49E9                   -0.1391639714024173      -0.7043128236152972
5.52E9                   -0.2401861814232774      -0.6763514488129814
5.55E9                   -0.3360240601581388      -0.6339852727927968
5.58E9                   -0.4246354283400078      -0.5781265226100409
5.61E9                   -0.504132972333592       -0.5099754511670452
5.64E9                   -0.5728247197082664      -0.4309947290530143
5.67E9                   -0.6292503634185993      -0.34287814846140585
5.7E9                    -0.6722126290295448      -0.24751430289885407
5.73E9                   -0.7008029849053019      -0.14694602326906522
5.76E9                   -0.7144211187083386      -0.043326450639015475
5.79E9                   -0.7127877418013372      0.061127293981991716
5.82E9                   -0.695950433081478       0.16418182505681483
5.85E9                   -0.6642823913733114      0.26363554185701593
5.88E9                   -0.6184741267624911      0.3573659523263664
5.91E9                   -0.5595182817747919      0.44337522944645774
5.94E9                   -0.48868792892426943     0.5198330004360785
5.97E9                   -0.40750883762450485     0.5851154353812131
6.0E9                    -0.3177263372138679      0.6378397897349827
